150088
  -INDIGO-12231314512D

  9  8  0  0  0  0  0  0  0  0999 V2000
    5.4641   -0.4400    0.0000 N   0  0  0  0  0  0  0  0  0  0  0  0
    3.7320   -0.4400    0.0000 N   0  0  0  0  0  0  0  0  0  0  0  0
    4.5981    0.0600    0.0000 N   0  0  0  0  0  0  0  0  0  0  0  0
    6.3301    0.0600    0.0000 C   0  0  0  0  0  0  0  0  0  0  0  0
    2.8660    0.0600    0.0000 C   0  0  0  0  0  0  0  0  0  0  0  0
    7.1962   -0.4400    0.0000 C   0  0  0  0  0  0  0  0  0  0  0  0
    6.3301    1.0600    0.0000 C   0  0  0  0  0  0  0  0  0  0  0  0
    2.0000   -0.4400    0.0000 C   0  0  0  0  0  0  0  0  0  0  0  0
    2.8660    1.0600    0.0000 C   0  0  0  0  0  0  0  0  0  0  0  0
  1  3  1  0  0  0  0
  1  4  1  0  0  0  0
  2  3  2  0  0  0  0
  2  5  1  0  0  0  0
  4  6  1  0  0  0  0
  4  7  1  0  0  0  0
  5  8  1  0  0  0  0
  5  9  1  0  0  0  0
M  END
>  <PUBCHEM_ATOM_DEF_STEREO_COUNT>
0

>  <PUBCHEM_ATOM_UDEF_STEREO_COUNT>
0

>  <PUBCHEM_BOND_DEF_STEREO_COUNT>
0

>  <PUBCHEM_BOND_UDEF_STEREO_COUNT>
0

>  <PUBCHEM_CACTVS_COMPLEXITY>
86.3

>  <PUBCHEM_CACTVS_HBOND_ACCEPTOR>
3

>  <PUBCHEM_CACTVS_HBOND_DONOR>
1

>  <PUBCHEM_CACTVS_ROTATABLE_BOND>
3

>  <PUBCHEM_CACTVS_SUBSKEYS>
AAADccBjAAAAAAAAAAAAAAAAAAAAAAAAAAAAAAAAAAAAAAAAAAAAHAAYAAAACCjBAAQCAABiAAACAAAAAAAAAAAAAAAQAIAAAAAAAAAAAAAAAAAAEAAAAAAAAAAAAAAAAAAAAAAAAAAAAAAAAAAAAAAAAA==

>  <PUBCHEM_CACTVS_TAUTO_COUNT>
1

>  <PUBCHEM_CACTVS_TPSA>
36.8

>  <PUBCHEM_COMPONENT_COUNT>
1

>  <PUBCHEM_COMPOUND_CANONICALIZED>
1

>  <PUBCHEM_COMPOUND_CID>
150088

>  <PUBCHEM_COORDINATE_TYPE>
1
5
255

>  <PUBCHEM_EXACT_MASS>
129.126597

>  <PUBCHEM_HEAVY_ATOM_COUNT>
9

>  <PUBCHEM_ISOTOPIC_ATOM_COUNT>
0

>  <PUBCHEM_IUPAC_CAS_NAME>
N-propan-2-ylazo-2-propanamine

>  <PUBCHEM_IUPAC_INCHI>
InChI=1S/C6H15N3/c1-5(2)7-9-8-6(3)4/h5-6H,1-4H3,(H,7,8)

>  <PUBCHEM_IUPAC_INCHIKEY>
LCDKAAWDCFIQEX-UHFFFAOYSA-N

>  <PUBCHEM_IUPAC_NAME>
N-(propan-2-yldiazenyl)propan-2-amine

>  <PUBCHEM_IUPAC_OPENEYE_NAME>
N-isopropylazopropan-2-amine

>  <PUBCHEM_IUPAC_SYSTEMATIC_NAME>
N-(propan-2-yldiazenyl)propan-2-amine

>  <PUBCHEM_IUPAC_TRADITIONAL_NAME>
isopropyl(isopropylazo)amine

>  <PUBCHEM_MOLECULAR_FORMULA>
C6H15N3

>  <PUBCHEM_MOLECULAR_WEIGHT>
129.2034

>  <PUBCHEM_MONOISOTOPIC_WEIGHT>
129.126597

>  <PUBCHEM_OPENEYE_CAN_SMILES>
CC(C)NN=NC(C)C

>  <PUBCHEM_OPENEYE_ISO_SMILES>
CC(C)NN=NC(C)C

>  <PUBCHEM_TOTAL_CHARGE>
0

>  <PUBCHEM_XLOGP3_AA>
2.3

$$$$
150841
  -INDIGO-12231314542D

  8  8  0  0  0  0  0  0  0  0999 V2000
    6.2633    0.1717    0.0000 O   0  0  0  0  0  0  0  0  0  0  0  0
    2.8090   -0.4672    0.0000 N   0  0  0  0  0  0  0  0  0  0  0  0
    2.3090    1.0717    0.0000 N   0  0  0  0  0  0  0  0  0  0  0  0
    3.6180    0.1206    0.0000 C   0  0  0  0  0  0  0  0  0  0  0  0
    4.5691   -0.1884    0.0000 C   0  0  0  0  0  0  0  0  0  0  0  0
    3.3090    1.0717    0.0000 C   0  0  0  0  0  0  0  0  0  0  0  0
    2.0000    0.1206    0.0000 C   0  0  0  0  0  0  0  0  0  0  0  0
    5.3122    0.4807    0.0000 C   0  0  0  0  0  0  0  0  0  0  0  0
  1  8  2  0  0  0  0
  2  4  1  0  0  0  0
  2  7  1  0  0  0  0
  3  6  1  0  0  0  0
  3  7  2  0  0  0  0
  4  5  1  0  0  0  0
  4  6  2  0  0  0  0
  5  8  1  0  0  0  0
M  END
>  <PUBCHEM_ATOM_DEF_STEREO_COUNT>
0

>  <PUBCHEM_ATOM_UDEF_STEREO_COUNT>
0

>  <PUBCHEM_BONDANNOTATIONS>
2  4  8
2  7  8
3  6  8
3  7  8
4  6  8

>  <PUBCHEM_BOND_DEF_STEREO_COUNT>
0

>  <PUBCHEM_BOND_UDEF_STEREO_COUNT>
0

>  <PUBCHEM_CACTVS_COMPLEXITY>
84.5

>  <PUBCHEM_CACTVS_HBOND_ACCEPTOR>
2

>  <PUBCHEM_CACTVS_HBOND_DONOR>
1

>  <PUBCHEM_CACTVS_ROTATABLE_BOND>
2

>  <PUBCHEM_CACTVS_SUBSKEYS>
AAADcYBjIAAAAAAAAAAAAAAAAAAAAWAAAAAAAAAAAAAAAAABgAAAHgAQAAAACAjhlgYtkBbJkACoARx35AAAgC2xEqABUYE4cAiAaBhAjQAUAAAIEAJAQCAEAAAAAAAAAAAAAAAAAAAAAAAAAAAAAAAAAA==

>  <PUBCHEM_CACTVS_TAUTO_COUNT>
4

>  <PUBCHEM_CACTVS_TPSA>
45.8

>  <PUBCHEM_COMPONENT_COUNT>
1

>  <PUBCHEM_COMPOUND_CANONICALIZED>
1

>  <PUBCHEM_COMPOUND_CID>
150841

>  <PUBCHEM_COORDINATE_TYPE>
1
5
255

>  <PUBCHEM_EXACT_MASS>
110.048013

>  <PUBCHEM_HEAVY_ATOM_COUNT>
8

>  <PUBCHEM_ISOTOPIC_ATOM_COUNT>
0

>  <PUBCHEM_IUPAC_CAS_NAME>
2-(1H-imidazol-5-yl)acetaldehyde

>  <PUBCHEM_IUPAC_INCHI>
InChI=1S/C5H6N2O/c8-2-1-5-3-6-4-7-5/h2-4H,1H2,(H,6,7)

>  <PUBCHEM_IUPAC_INCHIKEY>
MQSRGWNVEZRLDK-UHFFFAOYSA-N

>  <PUBCHEM_IUPAC_NAME>
2-(1H-imidazol-5-yl)acetaldehyde

>  <PUBCHEM_IUPAC_OPENEYE_NAME>
2-(1H-imidazol-5-yl)acetaldehyde

>  <PUBCHEM_IUPAC_SYSTEMATIC_NAME>
2-(1H-imidazol-5-yl)ethanal

>  <PUBCHEM_IUPAC_TRADITIONAL_NAME>
2-(1H-imidazol-5-yl)acetaldehyde

>  <PUBCHEM_MOLECULAR_FORMULA>
C5H6N2O

>  <PUBCHEM_MOLECULAR_WEIGHT>
110.11394

>  <PUBCHEM_MONOISOTOPIC_WEIGHT>
110.048013

>  <PUBCHEM_OPENEYE_CAN_SMILES>
C1=C(NC=N1)CC=O

>  <PUBCHEM_OPENEYE_ISO_SMILES>
C1=C(NC=N1)CC=O

>  <PUBCHEM_TOTAL_CHARGE>
0

>  <PUBCHEM_XLOGP3_AA>
-0.5 

$$$$
150784
  -INDIGO-12231314542D

  6  5  0  0  0  0  0  0  0  0999 V2000
    5.1350   -0.2500    0.0000 I   0  0  0  0  0  0  0  0  0  0  0  0
    2.5369    0.2500    0.0000 O   0  0  0  0  0  0  0  0  0  0  0  0
    3.4030   -1.2500    0.0000 O   0  0  0  0  0  0  0  0  0  0  0  0
    4.2690    0.2500    0.0000 C   0  0  0  0  0  0  0  0  0  0  0  0
    4.2690    1.2500    0.0000 C   0  0  0  0  0  0  0  0  0  0  0  0
    3.4030   -0.2500    0.0000 C   0  0  0  0  0  0  0  0  0  0  0  0
  1  4  1  0  0  0  0
  2  6  1  0  0  0  0
  3  6  2  0  0  0  0
  4  5  1  0  0  0  0
  4  6  1  0  0  0  0
M  END
>  <PUBCHEM_ATOM_DEF_STEREO_COUNT>
0

>  <PUBCHEM_ATOM_UDEF_STEREO_COUNT>
1

>  <PUBCHEM_BONDANNOTATIONS>
4  7  3

>  <PUBCHEM_BOND_DEF_STEREO_COUNT>
0

>  <PUBCHEM_BOND_UDEF_STEREO_COUNT>
0

>  <PUBCHEM_CACTVS_COMPLEXITY>
61.8

>  <PUBCHEM_CACTVS_HBOND_ACCEPTOR>
2

>  <PUBCHEM_CACTVS_HBOND_DONOR>
1

>  <PUBCHEM_CACTVS_ROTATABLE_BOND>
1

>  <PUBCHEM_CACTVS_SUBSKEYS>
AAADcYBAMAAAAgAAAAAAAAAAAAAAAAAAAAAAAAAAAAAAAAAAAAAAGgAgCAAACACCgAACCAAAAgAIAACQCAAAAAAAAAAAAAEAAAAAAAAAAAAAQAAAAAAAAAAAAAAAAAAAAAAAAAAAAAAAAAAAAAAAAAAAAA==

>  <PUBCHEM_CACTVS_TAUTO_COUNT>
1

>  <PUBCHEM_CACTVS_TPSA>
37.3

>  <PUBCHEM_COMPONENT_COUNT>
1

>  <PUBCHEM_COMPOUND_CANONICALIZED>
1

>  <PUBCHEM_COMPOUND_CID>
150784

>  <PUBCHEM_COORDINATE_TYPE>
1
5
255

>  <PUBCHEM_EXACT_MASS>
199.933427

>  <PUBCHEM_HEAVY_ATOM_COUNT>
6

>  <PUBCHEM_ISOTOPIC_ATOM_COUNT>
0

>  <PUBCHEM_IUPAC_CAS_NAME>
2-iodopropanoic acid

>  <PUBCHEM_IUPAC_INCHI>
InChI=1S/C3H5IO2/c1-2(4)3(5)6/h2H,1H3,(H,5,6)

>  <PUBCHEM_IUPAC_INCHIKEY>
KZLYQYPURWXOEW-UHFFFAOYSA-N

>  <PUBCHEM_IUPAC_NAME>
2-iodopropanoic acid

>  <PUBCHEM_IUPAC_OPENEYE_NAME>
2-iodopropanoic acid

>  <PUBCHEM_IUPAC_SYSTEMATIC_NAME>
2-iodanylpropanoic acid

>  <PUBCHEM_IUPAC_TRADITIONAL_NAME>
2-iodopropionic acid

>  <PUBCHEM_MOLECULAR_FORMULA>
C3H5IO2

>  <PUBCHEM_MOLECULAR_WEIGHT>
199.97507

>  <PUBCHEM_MONOISOTOPIC_WEIGHT>
199.933427

>  <PUBCHEM_OPENEYE_CAN_SMILES>
CC(C(=O)O)I

>  <PUBCHEM_OPENEYE_ISO_SMILES>
CC(C(=O)O)I

>  <PUBCHEM_TOTAL_CHARGE>
0

>  <PUBCHEM_XLOGP3_AA>
1

$$$$ 
151080
  -INDIGO-12231314542D

  4  4  0  0  0  0  0  0  0  0999 V2000
    2.0000    0.5000    0.0000 C   0  0  0  0  0  0  0  0  0  0  0  0
    2.8660    0.0000    0.0000 C   0  0  0  0  0  0  0  0  0  0  0  0
    2.0000   -0.5000    0.0000 C   0  0  0  0  0  0  0  0  0  0  0  0
    3.8660    0.0000    0.0000 C   0  0  0  0  0  0  0  0  0  0  0  0
  1  2  1  0  0  0  0
  1  3  1  0  0  0  0
  2  3  2  0  0  0  0
  2  4  1  0  0  0  0
M  END
>  <PUBCHEM_ATOM_DEF_STEREO_COUNT>
0

>  <PUBCHEM_ATOM_UDEF_STEREO_COUNT>
0

>  <PUBCHEM_BOND_DEF_STEREO_COUNT>
0

>  <PUBCHEM_BOND_UDEF_STEREO_COUNT>
0

>  <PUBCHEM_CACTVS_COMPLEXITY>
51.1

>  <PUBCHEM_CACTVS_HBOND_ACCEPTOR>
0

>  <PUBCHEM_CACTVS_HBOND_DONOR>
0

>  <PUBCHEM_CACTVS_ROTATABLE_BOND>
0

>  <PUBCHEM_CACTVS_SUBSKEYS>
AAADcYBgAAAAAAAAAAAAAAAAEAAAAAAAAAAAAAAAAAAAAAAAAAAAGAAAAAAADACAAAACAAAAAACAAiBCAAAAAAAAAAAACAAAAAAAAAAAAQAAAAAAAAAAAAAAAAAAAAAAAAAAAAAAAAAAAAAAAAAAAAAAAA==

>  <PUBCHEM_CACTVS_TAUTO_COUNT>
1

>  <PUBCHEM_CACTVS_TPSA>
0

>  <PUBCHEM_COMPONENT_COUNT>
1

>  <PUBCHEM_COMPOUND_CANONICALIZED>
1

>  <PUBCHEM_COMPOUND_CID>
151080

>  <PUBCHEM_COORDINATE_TYPE>
1
5
255

>  <PUBCHEM_EXACT_MASS>
54.04695

>  <PUBCHEM_HEAVY_ATOM_COUNT>
4

>  <PUBCHEM_ISOTOPIC_ATOM_COUNT>
0

>  <PUBCHEM_IUPAC_CAS_NAME>
1-methylcyclopropene

>  <PUBCHEM_IUPAC_INCHI>
InChI=1S/C4H6/c1-4-2-3-4/h2H,3H2,1H3

>  <PUBCHEM_IUPAC_INCHIKEY>
SHDPRTQPPWIEJG-UHFFFAOYSA-N

>  <PUBCHEM_IUPAC_NAME>
1-methylcyclopropene

>  <PUBCHEM_IUPAC_OPENEYE_NAME>
1-methylcyclopropene

>  <PUBCHEM_IUPAC_SYSTEMATIC_NAME>
1-methylcyclopropene

>  <PUBCHEM_IUPAC_TRADITIONAL_NAME>
1-methylcyclopropene

>  <PUBCHEM_MOLECULAR_FORMULA>
C4H6

>  <PUBCHEM_MOLECULAR_WEIGHT>
54.09044

>  <PUBCHEM_MONOISOTOPIC_WEIGHT>
54.04695

>  <PUBCHEM_OPENEYE_CAN_SMILES>
CC1=CC1

>  <PUBCHEM_OPENEYE_ISO_SMILES>
CC1=CC1

>  <PUBCHEM_TOTAL_CHARGE>
0

>  <PUBCHEM_XLOGP3_AA>
1

$$$$ 
